TITLE = "GTlab DataZone Export"
VARIABLES = "axis_1" "A" "B" "C" "D" 
ZONE T = "DZ1D"
ZONETYPE = ORDERED I = 4 J = 1 K = 1 DATAPACKING = POINT 
 1.000000	0.100000	1.200000	2.300000	3.400000	
 2.000000	1.100000	2.200000	3.300000	4.400000	
 3.000000	2.100000	3.200000	4.300000	5.400000	
 4.000000	3.100000	4.200000	5.300000	6.400000	
