TITLE = "GTlab DataZone Export"
VARIABLES = "axis_1" "axis_2" "A" "B" "C" "D" 
ZONE T = "DZ2D"
ZONETYPE = ORDERED I = 6 J = 1 K = 1 DATAPACKING = POINT 
 1.000000     2.000000     0.100000     1.100000     2.100000     3.100000     
 1.000000     3.000000     2.300000     3.300000     4.300000     5.300000     
 1.000000     4.000000     4.500000     5.500000     6.500000     7.500000     
 2.000000     2.000000     1.200000     2.200000     3.200000     4.200000     
 2.000000     3.000000     3.400000     4.400000     5.400000     6.400000     
 2.000000     4.000000     5.600000     6.600000     7.600000     8.600000     
